s 1.000000000 _0_ AGT  --- 0 tcp 40 [0 0 0 0] ------- [0:0 7:0 32 0] [0 0] 0 0
r 1.000000000 _0_ RTR  --- 0 tcp 40 [0 0 0 0] ------- [0:0 7:0 32 0] [0 0] 0 0
s 1.000000000 _0_ AGT  --- 1 tcp 40 [0 0 0 0] ------- [0:1 18:0 32 0] [0 0] 0 0
r 1.000000000 _0_ RTR  --- 1 tcp 40 [0 0 0 0] ------- [0:1 18:0 32 0] [0 0] 0 0
s 1.000000000 _0_ AGT  --- 2 tcp 40 [0 0 0 0] ------- [0:2 4:0 32 0] [0 0] 0 0
r 1.000000000 _0_ RTR  --- 2 tcp 40 [0 0 0 0] ------- [0:2 4:0 32 0] [0 0] 0 0
s 1.000000000 _0_ AGT  --- 3 tcp 40 [0 0 0 0] ------- [0:3 1:0 32 0] [0 0] 0 0
r 1.000000000 _0_ RTR  --- 3 tcp 40 [0 0 0 0] ------- [0:3 1:0 32 0] [0 0] 0 0
s 1.000000000 _0_ AGT  --- 4 tcp 40 [0 0 0 0] ------- [0:4 14:0 32 0] [0 0] 0 0
r 1.000000000 _0_ RTR  --- 4 tcp 40 [0 0 0 0] ------- [0:4 14:0 32 0] [0 0] 0 0
s 1.000000000 _0_ AGT  --- 5 tcp 40 [0 0 0 0] ------- [0:5 16:0 32 0] [0 0] 0 0
r 1.000000000 _0_ RTR  --- 5 tcp 40 [0 0 0 0] ------- [0:5 16:0 32 0] [0 0] 0 0
s 1.000000000 _0_ AGT  --- 6 tcp 40 [0 0 0 0] ------- [0:6 11:0 32 0] [0 0] 0 0
r 1.000000000 _0_ RTR  --- 6 tcp 40 [0 0 0 0] ------- [0:6 11:0 32 0] [0 0] 0 0
s 1.000000000 _0_ AGT  --- 7 tcp 40 [0 0 0 0] ------- [0:7 18:1 32 0] [0 0] 0 0
r 1.000000000 _0_ RTR  --- 7 tcp 40 [0 0 0 0] ------- [0:7 18:1 32 0] [0 0] 0 0
s 1.000000000 _0_ AGT  --- 8 tcp 40 [0 0 0 0] ------- [0:8 12:0 32 0] [0 0] 0 0
r 1.000000000 _0_ RTR  --- 8 tcp 40 [0 0 0 0] ------- [0:8 12:0 32 0] [0 0] 0 0
s 1.000000000 _0_ AGT  --- 9 tcp 40 [0 0 0 0] ------- [0:9 11:1 32 0] [0 0] 0 0
r 1.000000000 _0_ RTR  --- 9 tcp 40 [0 0 0 0] ------- [0:9 11:1 32 0] [0 0] 0 0
s 1.000000000 _0_ AGT  --- 10 tcp 40 [0 0 0 0] ------- [0:10 3:0 32 0] [0 0] 0 0
r 1.000000000 _0_ RTR  --- 10 tcp 40 [0 0 0 0] ------- [0:10 3:0 32 0] [0 0] 0 0
s 1.000000000 _0_ AGT  --- 11 tcp 40 [0 0 0 0] ------- [0:11 19:0 32 0] [0 0] 0 0
r 1.000000000 _0_ RTR  --- 11 tcp 40 [0 0 0 0] ------- [0:11 19:0 32 0] [0 0] 0 0
s 1.000000000 _0_ AGT  --- 12 tcp 40 [0 0 0 0] ------- [0:12 18:2 32 0] [0 0] 0 0
r 1.000000000 _0_ RTR  --- 12 tcp 40 [0 0 0 0] ------- [0:12 18:2 32 0] [0 0] 0 0
s 1.000000000 _0_ AGT  --- 13 tcp 40 [0 0 0 0] ------- [0:13 4:1 32 0] [0 0] 0 0
r 1.000000000 _0_ RTR  --- 13 tcp 40 [0 0 0 0] ------- [0:13 4:1 32 0] [0 0] 0 0
s 1.000000000 _0_ AGT  --- 14 tcp 40 [0 0 0 0] ------- [0:14 3:1 32 0] [0 0] 0 0
r 1.000000000 _0_ RTR  --- 14 tcp 40 [0 0 0 0] ------- [0:14 3:1 32 0] [0 0] 0 0
s 1.000000000 _0_ AGT  --- 15 tcp 40 [0 0 0 0] ------- [0:15 19:1 32 0] [0 0] 0 0
r 1.000000000 _0_ RTR  --- 15 tcp 40 [0 0 0 0] ------- [0:15 19:1 32 0] [0 0] 0 0
s 1.000000000 _0_ AGT  --- 16 tcp 40 [0 0 0 0] ------- [0:16 7:1 32 0] [0 0] 0 0
r 1.000000000 _0_ RTR  --- 16 tcp 40 [0 0 0 0] ------- [0:16 7:1 32 0] [0 0] 0 0
s 1.000000000 _0_ AGT  --- 17 tcp 40 [0 0 0 0] ------- [0:17 6:0 32 0] [0 0] 0 0
r 1.000000000 _0_ RTR  --- 17 tcp 40 [0 0 0 0] ------- [0:17 6:0 32 0] [0 0] 0 0
s 1.000000000 _0_ AGT  --- 18 tcp 40 [0 0 0 0] ------- [0:18 6:1 32 0] [0 0] 0 0
r 1.000000000 _0_ RTR  --- 18 tcp 40 [0 0 0 0] ------- [0:18 6:1 32 0] [0 0] 0 0
s 1.000000000 _0_ AGT  --- 19 tcp 40 [0 0 0 0] ------- [0:19 7:2 32 0] [0 0] 0 0
r 1.000000000 _0_ RTR  --- 19 tcp 40 [0 0 0 0] ------- [0:19 7:2 32 0] [0 0] 0 0
s 1.000000000 _0_ RTR  --- 0 AODV 48 [0 0 0 0] ------- [0:255 -1:255 30 0] [0x2 1 1 [7 0] [0 4]] (REQUEST)
s 1.000000000 _0_ RTR  --- 0 AODV 48 [0 0 0 0] ------- [0:255 -1:255 30 0] [0x2 1 2 [18 0] [0 6]] (REQUEST)
s 1.000000000 _0_ RTR  --- 0 AODV 48 [0 0 0 0] ------- [0:255 -1:255 30 0] [0x2 1 3 [4 0] [0 8]] (REQUEST)
s 1.000000000 _0_ RTR  --- 0 AODV 48 [0 0 0 0] ------- [0:255 -1:255 30 0] [0x2 1 4 [1 0] [0 10]] (REQUEST)
s 1.000000000 _0_ RTR  --- 0 AODV 48 [0 0 0 0] ------- [0:255 -1:255 30 0] [0x2 1 5 [14 0] [0 12]] (REQUEST)
s 1.000000000 _0_ RTR  --- 0 AODV 48 [0 0 0 0] ------- [0:255 -1:255 30 0] [0x2 1 6 [16 0] [0 14]] (REQUEST)
s 1.000000000 _0_ RTR  --- 0 AODV 48 [0 0 0 0] ------- [0:255 -1:255 30 0] [0x2 1 7 [11 0] [0 16]] (REQUEST)
s 1.000000000 _0_ RTR  --- 0 AODV 48 [0 0 0 0] ------- [0:255 -1:255 30 0] [0x2 1 8 [12 0] [0 18]] (REQUEST)
s 1.000000000 _0_ RTR  --- 0 AODV 48 [0 0 0 0] ------- [0:255 -1:255 30 0] [0x2 1 9 [3 0] [0 20]] (REQUEST)
s 1.000000000 _0_ RTR  --- 0 AODV 48 [0 0 0 0] ------- [0:255 -1:255 30 0] [0x2 1 10 [19 0] [0 22]] (REQUEST)
s 1.000000000 _0_ RTR  --- 0 AODV 48 [0 0 0 0] ------- [0:255 -1:255 30 0] [0x2 1 11 [6 0] [0 24]] (REQUEST)
r 1.001268333 _6_ RTR  --- 0 AODV 48 [0 ffffffff 0 800] ------- [0:255 -1:255 30 0] [0x2 1 1 [7 0] [0 4]] (REQUEST)
r 1.001268333 _1_ RTR  --- 0 AODV 48 [0 ffffffff 0 800] ------- [0:255 -1:255 30 0] [0x2 1 1 [7 0] [0 4]] (REQUEST)
r 1.001268471 _7_ RTR  --- 0 AODV 48 [0 ffffffff 0 800] ------- [0:255 -1:255 30 0] [0x2 1 1 [7 0] [0 4]] (REQUEST)
s 1.001268471 _7_ RTR  --- 0 AODV 44 [0 0 0 0] ------- [7:255 0:255 30 0] [0x4 1 [7 4] 10.000000] (REPLY)
r 1.001268667 _12_ RTR  --- 0 AODV 48 [0 ffffffff 0 800] ------- [0:255 -1:255 30 0] [0x2 1 1 [7 0] [0 4]] (REQUEST)
r 1.001268667 _2_ RTR  --- 0 AODV 48 [0 ffffffff 0 800] ------- [0:255 -1:255 30 0] [0x2 1 1 [7 0] [0 4]] (REQUEST)
r 1.001268745 _13_ RTR  --- 0 AODV 48 [0 ffffffff 0 800] ------- [0:255 -1:255 30 0] [0x2 1 1 [7 0] [0 4]] (REQUEST)
r 1.001268745 _8_ RTR  --- 0 AODV 48 [0 ffffffff 0 800] ------- [0:255 -1:255 30 0] [0x2 1 1 [7 0] [0 4]] (REQUEST)
r 1.002366333 _6_ RTR  --- 0 AODV 48 [0 ffffffff 0 800] ------- [0:255 -1:255 30 0] [0x2 1 11 [6 0] [0 24]] (REQUEST)
r 1.002366333 _1_ RTR  --- 0 AODV 48 [0 ffffffff 0 800] ------- [0:255 -1:255 30 0] [0x2 1 11 [6 0] [0 24]] (REQUEST)
s 1.002366333 _6_ RTR  --- 0 AODV 44 [0 0 0 0] ------- [6:255 0:255 30 0] [0x4 1 [6 4] 10.000000] (REPLY)
r 1.002366471 _7_ RTR  --- 0 AODV 48 [0 ffffffff 0 800] ------- [0:255 -1:255 30 0] [0x2 1 11 [6 0] [0 24]] (REQUEST)
r 1.002366667 _12_ RTR  --- 0 AODV 48 [0 ffffffff 0 800] ------- [0:255 -1:255 30 0] [0x2 1 11 [6 0] [0 24]] (REQUEST)
r 1.002366667 _2_ RTR  --- 0 AODV 48 [0 ffffffff 0 800] ------- [0:255 -1:255 30 0] [0x2 1 11 [6 0] [0 24]] (REQUEST)
r 1.002366745 _13_ RTR  --- 0 AODV 48 [0 ffffffff 0 800] ------- [0:255 -1:255 30 0] [0x2 1 11 [6 0] [0 24]] (REQUEST)
r 1.002366745 _8_ RTR  --- 0 AODV 48 [0 ffffffff 0 800] ------- [0:255 -1:255 30 0] [0x2 1 11 [6 0] [0 24]] (REQUEST)
s 1.003849213 _6_ RTR  --- 0 AODV 48 [0 ffffffff 0 800] ------- [6:255 -1:255 29 0] [0x2 2 1 [7 0] [0 4]] (REQUEST)
s 1.004778590 _1_ RTR  --- 0 AODV 48 [0 ffffffff 0 800] ------- [1:255 -1:255 29 0] [0x2 2 11 [6 0] [0 24]] (REQUEST)
r 1.005161138 _0_ RTR  --- 0 AODV 48 [0 ffffffff 6 800] ------- [6:255 -1:255 29 0] [0x2 2 1 [7 0] [0 4]] (REQUEST)
r 1.005161138 _12_ RTR  --- 0 AODV 48 [0 ffffffff 6 800] ------- [6:255 -1:255 29 0] [0x2 2 1 [7 0] [0 4]] (REQUEST)
r 1.005161138 _7_ RTR  --- 0 AODV 48 [0 ffffffff 6 800] ------- [6:255 -1:255 29 0] [0x2 2 1 [7 0] [0 4]] (REQUEST)
r 1.005161276 _1_ RTR  --- 0 AODV 48 [0 ffffffff 6 800] ------- [6:255 -1:255 29 0] [0x2 2 1 [7 0] [0 4]] (REQUEST)
r 1.005161276 _13_ RTR  --- 0 AODV 48 [0 ffffffff 6 800] ------- [6:255 -1:255 29 0] [0x2 2 1 [7 0] [0 4]] (REQUEST)
r 1.005161471 _18_ RTR  --- 0 AODV 48 [0 ffffffff 6 800] ------- [6:255 -1:255 29 0] [0x2 2 1 [7 0] [0 4]] (REQUEST)
r 1.005161471 _8_ RTR  --- 0 AODV 48 [0 ffffffff 6 800] ------- [6:255 -1:255 29 0] [0x2 2 1 [7 0] [0 4]] (REQUEST)
r 1.005161550 _19_ RTR  --- 0 AODV 48 [0 ffffffff 6 800] ------- [6:255 -1:255 29 0] [0x2 2 1 [7 0] [0 4]] (REQUEST)
r 1.005161550 _2_ RTR  --- 0 AODV 48 [0 ffffffff 6 800] ------- [6:255 -1:255 29 0] [0x2 2 1 [7 0] [0 4]] (REQUEST)
r 1.005161550 _14_ RTR  --- 0 AODV 48 [0 ffffffff 6 800] ------- [6:255 -1:255 29 0] [0x2 2 1 [7 0] [0 4]] (REQUEST)
s 1.005355190 _1_ RTR  --- 0 AODV 48 [0 ffffffff 0 800] ------- [1:255 -1:255 29 0] [0x2 2 1 [7 0] [0 4]] (REQUEST)
s 1.005745576 _14_ RTR  --- 0 AODV 48 [0 ffffffff 6 800] ------- [14:255 -1:255 28 0] [0x2 3 1 [7 0] [0 4]] (REQUEST)
s 1.005929826 _2_ RTR  --- 0 AODV 48 [0 ffffffff 0 800] ------- [2:255 -1:255 29 0] [0x2 2 1 [7 0] [0 4]] (REQUEST)
r 1.006199471 _6_ RTR  --- 0 AODV 48 [0 ffffffff 0 800] ------- [0:255 -1:255 30 0] [0x2 1 10 [19 0] [0 22]] (REQUEST)
r 1.006199471 _1_ RTR  --- 0 AODV 48 [0 ffffffff 0 800] ------- [0:255 -1:255 30 0] [0x2 1 10 [19 0] [0 22]] (REQUEST)
r 1.006199609 _7_ RTR  --- 0 AODV 48 [0 ffffffff 0 800] ------- [0:255 -1:255 30 0] [0x2 1 10 [19 0] [0 22]] (REQUEST)
r 1.006199805 _12_ RTR  --- 0 AODV 48 [0 ffffffff 0 800] ------- [0:255 -1:255 30 0] [0x2 1 10 [19 0] [0 22]] (REQUEST)
r 1.006199805 _2_ RTR  --- 0 AODV 48 [0 ffffffff 0 800] ------- [0:255 -1:255 30 0] [0x2 1 10 [19 0] [0 22]] (REQUEST)
r 1.006199883 _13_ RTR  --- 0 AODV 48 [0 ffffffff 0 800] ------- [0:255 -1:255 30 0] [0x2 1 10 [19 0] [0 22]] (REQUEST)
r 1.006199883 _8_ RTR  --- 0 AODV 48 [0 ffffffff 0 800] ------- [0:255 -1:255 30 0] [0x2 1 10 [19 0] [0 22]] (REQUEST)
s 1.006281863 _19_ RTR  --- 0 AODV 48 [0 ffffffff 6 800] ------- [19:255 -1:255 28 0] [0x2 3 1 [7 0] [0 4]] (REQUEST)
s 1.006421936 _8_ RTR  --- 0 AODV 48 [0 ffffffff 0 800] ------- [8:255 -1:255 29 0] [0x2 2 11 [6 0] [0 24]] (REQUEST)
s 1.006455155 _12_ RTR  --- 0 AODV 48 [0 ffffffff 0 800] ------- [12:255 -1:255 29 0] [0x2 2 1 [7 0] [0 4]] (REQUEST)
s 1.007430506 _6_ RTR  --- 0 AODV 48 [0 ffffffff 0 800] ------- [6:255 -1:255 29 0] [0x2 2 10 [19 0] [0 22]] (REQUEST)
r 1.007438138 _1_ RTR  --- 0 AODV 48 [0 ffffffff 2 800] ------- [2:255 -1:255 29 0] [0x2 2 1 [7 0] [0 4]] (REQUEST)
r 1.007438138 _8_ RTR  --- 0 AODV 48 [0 ffffffff 2 800] ------- [2:255 -1:255 29 0] [0x2 2 1 [7 0] [0 4]] (REQUEST)
r 1.007438138 _3_ RTR  --- 0 AODV 48 [0 ffffffff 2 800] ------- [2:255 -1:255 29 0] [0x2 2 1 [7 0] [0 4]] (REQUEST)
r 1.007438276 _7_ RTR  --- 0 AODV 48 [0 ffffffff 2 800] ------- [2:255 -1:255 29 0] [0x2 2 1 [7 0] [0 4]] (REQUEST)
r 1.007438276 _9_ RTR  --- 0 AODV 48 [0 ffffffff 2 800] ------- [2:255 -1:255 29 0] [0x2 2 1 [7 0] [0 4]] (REQUEST)
r 1.007438471 _0_ RTR  --- 0 AODV 48 [0 ffffffff 2 800] ------- [2:255 -1:255 29 0] [0x2 2 1 [7 0] [0 4]] (REQUEST)
r 1.007438471 _14_ RTR  --- 0 AODV 48 [0 ffffffff 2 800] ------- [2:255 -1:255 29 0] [0x2 2 1 [7 0] [0 4]] (REQUEST)
r 1.007438471 _4_ RTR  --- 0 AODV 48 [0 ffffffff 2 800] ------- [2:255 -1:255 29 0] [0x2 2 1 [7 0] [0 4]] (REQUEST)
r 1.007438550 _13_ RTR  --- 0 AODV 48 [0 ffffffff 2 800] ------- [2:255 -1:255 29 0] [0x2 2 1 [7 0] [0 4]] (REQUEST)
r 1.007438550 _6_ RTR  --- 0 AODV 48 [0 ffffffff 2 800] ------- [2:255 -1:255 29 0] [0x2 2 1 [7 0] [0 4]] (REQUEST)
r 1.007438550 _15_ RTR  --- 0 AODV 48 [0 ffffffff 2 800] ------- [2:255 -1:255 29 0] [0x2 2 1 [7 0] [0 4]] (REQUEST)
r 1.007438550 _10_ RTR  --- 0 AODV 48 [0 ffffffff 2 800] ------- [2:255 -1:255 29 0] [0x2 2 1 [7 0] [0 4]] (REQUEST)
s 1.008191814 _13_ RTR  --- 0 AODV 48 [0 ffffffff 0 800] ------- [13:255 -1:255 29 0] [0x2 2 1 [7 0] [0 4]] (REQUEST)
r 1.008376471 _0_ RTR  --- 0 AODV 48 [0 ffffffff 1 800] ------- [1:255 -1:255 29 0] [0x2 2 11 [6 0] [0 24]] (REQUEST)
r 1.008376471 _7_ RTR  --- 0 AODV 48 [0 ffffffff 1 800] ------- [1:255 -1:255 29 0] [0x2 2 11 [6 0] [0 24]] (REQUEST)
r 1.008376471 _2_ RTR  --- 0 AODV 48 [0 ffffffff 1 800] ------- [1:255 -1:255 29 0] [0x2 2 11 [6 0] [0 24]] (REQUEST)
r 1.008376609 _6_ RTR  --- 0 AODV 48 [0 ffffffff 1 800] ------- [1:255 -1:255 29 0] [0x2 2 11 [6 0] [0 24]] (REQUEST)
r 1.008376609 _8_ RTR  --- 0 AODV 48 [0 ffffffff 1 800] ------- [1:255 -1:255 29 0] [0x2 2 11 [6 0] [0 24]] (REQUEST)
r 1.008376805 _13_ RTR  --- 0 AODV 48 [0 ffffffff 1 800] ------- [1:255 -1:255 29 0] [0x2 2 11 [6 0] [0 24]] (REQUEST)
r 1.008376805 _3_ RTR  --- 0 AODV 48 [0 ffffffff 1 800] ------- [1:255 -1:255 29 0] [0x2 2 11 [6 0] [0 24]] (REQUEST)
r 1.008376883 _12_ RTR  --- 0 AODV 48 [0 ffffffff 1 800] ------- [1:255 -1:255 29 0] [0x2 2 11 [6 0] [0 24]] (REQUEST)
r 1.008376883 _14_ RTR  --- 0 AODV 48 [0 ffffffff 1 800] ------- [1:255 -1:255 29 0] [0x2 2 11 [6 0] [0 24]] (REQUEST)
r 1.008376883 _9_ RTR  --- 0 AODV 48 [0 ffffffff 1 800] ------- [1:255 -1:255 29 0] [0x2 2 11 [6 0] [0 24]] (REQUEST)
s 1.008769547 _7_ RTR  --- 0 AODV 48 [0 ffffffff 0 800] ------- [7:255 -1:255 29 0] [0x2 2 10 [19 0] [0 22]] (REQUEST)
s 1.008818125 _8_ RTR  --- 0 AODV 48 [0 ffffffff 0 800] ------- [8:255 -1:255 29 0] [0x2 2 10 [19 0] [0 22]] (REQUEST)
s 1.008878217 _9_ RTR  --- 0 AODV 48 [0 ffffffff 1 800] ------- [9:255 -1:255 28 0] [0x2 3 11 [6 0] [0 24]] (REQUEST)
s 1.009140156 _12_ RTR  --- 0 AODV 48 [0 ffffffff 0 800] ------- [12:255 -1:255 29 0] [0x2 2 11 [6 0] [0 24]] (REQUEST)
s 1.009290374 _3_ RTR  --- 0 AODV 48 [0 ffffffff 1 800] ------- [3:255 -1:255 28 0] [0x2 3 11 [6 0] [0 24]] (REQUEST)
s 1.009300281 _3_ RTR  --- 0 AODV 48 [0 ffffffff 2 800] ------- [3:255 -1:255 28 0] [0x2 3 1 [7 0] [0 4]] (REQUEST)
r 1.009335217 _6_ RTR  --- 0 AODV 48 [0 ffffffff c 800] ------- [12:255 -1:255 29 0] [0x2 2 1 [7 0] [0 4]] (REQUEST)
r 1.009335217 _18_ RTR  --- 0 AODV 48 [0 ffffffff c 800] ------- [12:255 -1:255 29 0] [0x2 2 1 [7 0] [0 4]] (REQUEST)
r 1.009335217 _13_ RTR  --- 0 AODV 48 [0 ffffffff c 800] ------- [12:255 -1:255 29 0] [0x2 2 1 [7 0] [0 4]] (REQUEST)
r 1.009335355 _7_ RTR  --- 0 AODV 48 [0 ffffffff c 800] ------- [12:255 -1:255 29 0] [0x2 2 1 [7 0] [0 4]] (REQUEST)
r 1.009335355 _19_ RTR  --- 0 AODV 48 [0 ffffffff c 800] ------- [12:255 -1:255 29 0] [0x2 2 1 [7 0] [0 4]] (REQUEST)
r 1.009335550 _0_ RTR  --- 0 AODV 48 [0 ffffffff c 800] ------- [12:255 -1:255 29 0] [0x2 2 1 [7 0] [0 4]] (REQUEST)
r 1.009335550 _14_ RTR  --- 0 AODV 48 [0 ffffffff c 800] ------- [12:255 -1:255 29 0] [0x2 2 1 [7 0] [0 4]] (REQUEST)
r 1.009335629 _1_ RTR  --- 0 AODV 48 [0 ffffffff c 800] ------- [12:255 -1:255 29 0] [0x2 2 1 [7 0] [0 4]] (REQUEST)
r 1.009335629 _8_ RTR  --- 0 AODV 48 [0 ffffffff c 800] ------- [12:255 -1:255 29 0] [0x2 2 1 [7 0] [0 4]] (REQUEST)
s 1.009505890 _10_ RTR  --- 0 AODV 48 [0 ffffffff 2 800] ------- [10:255 -1:255 28 0] [0x2 3 1 [7 0] [0 4]] (REQUEST)
s 1.009889418 _8_ RTR  --- 0 AODV 48 [0 ffffffff 0 800] ------- [8:255 -1:255 29 0] [0x2 2 1 [7 0] [0 4]] (REQUEST)
s 1.009988986 _2_ RTR  --- 0 AODV 48 [0 ffffffff 0 800] ------- [2:255 -1:255 29 0] [0x2 2 11 [6 0] [0 24]] (REQUEST)
r 1.010253883 _8_ RTR  --- 0 AODV 48 [0 ffffffff e 800] ------- [14:255 -1:255 28 0] [0x2 3 1 [7 0] [0 4]] (REQUEST)
r 1.010253883 _13_ RTR  --- 0 AODV 48 [0 ffffffff e 800] ------- [14:255 -1:255 28 0] [0x2 3 1 [7 0] [0 4]] (REQUEST)
r 1.010253883 _15_ RTR  --- 0 AODV 48 [0 ffffffff e 800] ------- [14:255 -1:255 28 0] [0x2 3 1 [7 0] [0 4]] (REQUEST)
r 1.010254021 _19_ RTR  --- 0 AODV 48 [0 ffffffff e 800] ------- [14:255 -1:255 28 0] [0x2 3 1 [7 0] [0 4]] (REQUEST)
r 1.010254021 _7_ RTR  --- 0 AODV 48 [0 ffffffff e 800] ------- [14:255 -1:255 28 0] [0x2 3 1 [7 0] [0 4]] (REQUEST)
r 1.010254021 _9_ RTR  --- 0 AODV 48 [0 ffffffff e 800] ------- [14:255 -1:255 28 0] [0x2 3 1 [7 0] [0 4]] (REQUEST)
r 1.010254217 _2_ RTR  --- 0 AODV 48 [0 ffffffff e 800] ------- [14:255 -1:255 28 0] [0x2 3 1 [7 0] [0 4]] (REQUEST)
r 1.010254217 _12_ RTR  --- 0 AODV 48 [0 ffffffff e 800] ------- [14:255 -1:255 28 0] [0x2 3 1 [7 0] [0 4]] (REQUEST)
r 1.010254217 _16_ RTR  --- 0 AODV 48 [0 ffffffff e 800] ------- [14:255 -1:255 28 0] [0x2 3 1 [7 0] [0 4]] (REQUEST)
r 1.010254295 _1_ RTR  --- 0 AODV 48 [0 ffffffff e 800] ------- [14:255 -1:255 28 0] [0x2 3 1 [7 0] [0 4]] (REQUEST)
r 1.010254295 _18_ RTR  --- 0 AODV 48 [0 ffffffff e 800] ------- [14:255 -1:255 28 0] [0x2 3 1 [7 0] [0 4]] (REQUEST)
r 1.010254295 _6_ RTR  --- 0 AODV 48 [0 ffffffff e 800] ------- [14:255 -1:255 28 0] [0x2 3 1 [7 0] [0 4]] (REQUEST)
r 1.010254295 _3_ RTR  --- 0 AODV 48 [0 ffffffff e 800] ------- [14:255 -1:255 28 0] [0x2 3 1 [7 0] [0 4]] (REQUEST)
r 1.010254295 _10_ RTR  --- 0 AODV 48 [0 ffffffff e 800] ------- [14:255 -1:255 28 0] [0x2 3 1 [7 0] [0 4]] (REQUEST)
s 1.010877537 _7_ RTR  --- 0 AODV 48 [0 ffffffff 0 800] ------- [7:255 -1:255 29 0] [0x2 2 11 [6 0] [0 24]] (REQUEST)
r 1.011192217 _14_ RTR  --- 0 AODV 48 [0 ffffffff 8 800] ------- [8:255 -1:255 29 0] [0x2 2 11 [6 0] [0 24]] (REQUEST)
r 1.011192217 _9_ RTR  --- 0 AODV 48 [0 ffffffff 8 800] ------- [8:255 -1:255 29 0] [0x2 2 11 [6 0] [0 24]] (REQUEST)
r 1.011192355 _15_ RTR  --- 0 AODV 48 [0 ffffffff 8 800] ------- [8:255 -1:255 29 0] [0x2 2 11 [6 0] [0 24]] (REQUEST)
s 1.011416200 _13_ RTR  --- 0 AODV 48 [0 ffffffff 0 800] ------- [13:255 -1:255 29 0] [0x2 2 11 [6 0] [0 24]] (REQUEST)
s 1.011648024 _2_ RTR  --- 0 AODV 48 [0 ffffffff 0 800] ------- [2:255 -1:255 29 0] [0x2 2 10 [19 0] [0 22]] (REQUEST)
r 1.012495295 _2_ RTR  --- 0 AODV 48 [0 ffffffff 3 800] ------- [3:255 -1:255 28 0] [0x2 3 11 [6 0] [0 24]] (REQUEST)
r 1.012495295 _9_ RTR  --- 0 AODV 48 [0 ffffffff 3 800] ------- [3:255 -1:255 28 0] [0x2 3 11 [6 0] [0 24]] (REQUEST)
r 1.012495295 _4_ RTR  --- 0 AODV 48 [0 ffffffff 3 800] ------- [3:255 -1:255 28 0] [0x2 3 11 [6 0] [0 24]] (REQUEST)
r 1.012495374 _6_ RTR  --- 0 AODV 48 [0 ffffffff c 800] ------- [12:255 -1:255 29 0] [0x2 2 11 [6 0] [0 24]] (REQUEST)
r 1.012495374 _18_ RTR  --- 0 AODV 48 [0 ffffffff c 800] ------- [12:255 -1:255 29 0] [0x2 2 11 [6 0] [0 24]] (REQUEST)
r 1.012495374 _13_ RTR  --- 0 AODV 48 [0 ffffffff c 800] ------- [12:255 -1:255 29 0] [0x2 2 11 [6 0] [0 24]] (REQUEST)
r 1.012495434 _10_ RTR  --- 0 AODV 48 [0 ffffffff 3 800] ------- [3:255 -1:255 28 0] [0x2 3 11 [6 0] [0 24]] (REQUEST)
r 1.012495512 _19_ RTR  --- 0 AODV 48 [0 ffffffff c 800] ------- [12:255 -1:255 29 0] [0x2 2 11 [6 0] [0 24]] (REQUEST)
r 1.012495629 _5_ RTR  --- 0 AODV 48 [0 ffffffff 3 800] ------- [3:255 -1:255 28 0] [0x2 3 11 [6 0] [0 24]] (REQUEST)
r 1.012495707 _16_ RTR  --- 0 AODV 48 [0 ffffffff 3 800] ------- [3:255 -1:255 28 0] [0x2 3 11 [6 0] [0 24]] (REQUEST)
r 1.012495707 _11_ RTR  --- 0 AODV 48 [0 ffffffff 3 800] ------- [3:255 -1:255 28 0] [0x2 3 11 [6 0] [0 24]] (REQUEST)
s 1.012885710 _1_ RTR  --- 0 AODV 48 [0 ffffffff 0 800] ------- [1:255 -1:255 29 0] [0x2 2 10 [19 0] [0 22]] (REQUEST)
s 1.013186537 _12_ RTR  --- 0 AODV 48 [0 ffffffff 0 800] ------- [12:255 -1:255 29 0] [0x2 2 10 [19 0] [0 22]] (REQUEST)
s 1.013294100 _14_ RTR  --- 0 AODV 48 [0 ffffffff 1 800] ------- [14:255 -1:255 28 0] [0x2 3 11 [6 0] [0 24]] (REQUEST)
r 1.013778041 _13_ RTR  --- 0 AODV 48 [0 ffffffff 7 800] ------- [7:255 -1:255 29 0] [0x2 2 10 [19 0] [0 22]] (REQUEST)
r 1.013778041 _8_ RTR  --- 0 AODV 48 [0 ffffffff 7 800] ------- [7:255 -1:255 29 0] [0x2 2 10 [19 0] [0 22]] (REQUEST)
r 1.013778179 _14_ RTR  --- 0 AODV 48 [0 ffffffff 7 800] ------- [7:255 -1:255 29 0] [0x2 2 10 [19 0] [0 22]] (REQUEST)
s 1.013779924 _14_ RTR  --- 0 AODV 48 [0 ffffffff 7 800] ------- [14:255 -1:255 28 0] [0x2 3 10 [19 0] [0 22]] (REQUEST)
s 1.013995592 _16_ RTR  --- 0 AODV 48 [0 ffffffff 3 800] ------- [16:255 -1:255 27 0] [0x2 4 11 [6 0] [0 24]] (REQUEST)
s 1.014074950 _18_ RTR  --- 0 AODV 48 [0 ffffffff 6 800] ------- [18:255 -1:255 28 0] [0x2 3 1 [7 0] [0 4]] (REQUEST)
s 1.014966440 _13_ RTR  --- 0 AODV 48 [0 ffffffff 0 800] ------- [13:255 -1:255 29 0] [0x2 2 10 [19 0] [0 22]] (REQUEST)
r 1.015080512 _6_ RTR  --- 0 AODV 48 [0 ffffffff 0 800] ------- [0:255 -1:255 30 0] [0x2 1 8 [12 0] [0 18]] (REQUEST)
r 1.015080512 _1_ RTR  --- 0 AODV 48 [0 ffffffff 0 800] ------- [0:255 -1:255 30 0] [0x2 1 8 [12 0] [0 18]] (REQUEST)
r 1.015081295 _4_ RTR  --- 0 AODV 48 [0 ffffffff 3 800] ------- [3:255 -1:255 28 0] [0x2 3 1 [7 0] [0 4]] (REQUEST)
r 1.015081434 _10_ RTR  --- 0 AODV 48 [0 ffffffff 3 800] ------- [3:255 -1:255 28 0] [0x2 3 1 [7 0] [0 4]] (REQUEST)
r 1.015081629 _5_ RTR  --- 0 AODV 48 [0 ffffffff 3 800] ------- [3:255 -1:255 28 0] [0x2 3 1 [7 0] [0 4]] (REQUEST)
r 1.015081707 _11_ RTR  --- 0 AODV 48 [0 ffffffff 3 800] ------- [3:255 -1:255 28 0] [0x2 3 1 [7 0] [0 4]] (REQUEST)
s 1.015115131 _5_ RTR  --- 0 AODV 48 [0 ffffffff 3 800] ------- [5:255 -1:255 27 0] [0x2 4 1 [7 0] [0 4]] (REQUEST)
s 1.015165507 _15_ RTR  --- 0 AODV 48 [0 ffffffff 2 800] ------- [15:255 -1:255 28 0] [0x2 3 1 [7 0] [0 4]] (REQUEST)
s 1.015288147 _9_ RTR  --- 0 AODV 48 [0 ffffffff 2 800] ------- [9:255 -1:255 28 0] [0x2 3 1 [7 0] [0 4]] (REQUEST)
s 1.016055881 _4_ RTR  --- 0 AODV 48 [0 ffffffff 3 800] ------- [4:255 -1:255 27 0] [0x2 4 11 [6 0] [0 24]] (REQUEST)
r 1.016364238 _7_ RTR  --- 0 AODV 48 [0 ffffffff d 800] ------- [13:255 -1:255 29 0] [0x2 2 1 [7 0] [0 4]] (REQUEST)
r 1.016364238 _12_ RTR  --- 0 AODV 48 [0 ffffffff d 800] ------- [13:255 -1:255 29 0] [0x2 2 1 [7 0] [0 4]] (REQUEST)
r 1.016364238 _19_ RTR  --- 0 AODV 48 [0 ffffffff d 800] ------- [13:255 -1:255 29 0] [0x2 2 1 [7 0] [0 4]] (REQUEST)
r 1.016364238 _14_ RTR  --- 0 AODV 48 [0 ffffffff d 800] ------- [13:255 -1:255 29 0] [0x2 2 1 [7 0] [0 4]] (REQUEST)
r 1.016364376 _18_ RTR  --- 0 AODV 48 [0 ffffffff d 800] ------- [13:255 -1:255 29 0] [0x2 2 1 [7 0] [0 4]] (REQUEST)
r 1.016364376 _6_ RTR  --- 0 AODV 48 [0 ffffffff d 800] ------- [13:255 -1:255 29 0] [0x2 2 1 [7 0] [0 4]] (REQUEST)
r 1.016364376 _8_ RTR  --- 0 AODV 48 [0 ffffffff d 800] ------- [13:255 -1:255 29 0] [0x2 2 1 [7 0] [0 4]] (REQUEST)
r 1.016364572 _1_ RTR  --- 0 AODV 48 [0 ffffffff d 800] ------- [13:255 -1:255 29 0] [0x2 2 1 [7 0] [0 4]] (REQUEST)
r 1.016364572 _15_ RTR  --- 0 AODV 48 [0 ffffffff d 800] ------- [13:255 -1:255 29 0] [0x2 2 1 [7 0] [0 4]] (REQUEST)
r 1.016364650 _0_ RTR  --- 0 AODV 48 [0 ffffffff d 800] ------- [13:255 -1:255 29 0] [0x2 2 1 [7 0] [0 4]] (REQUEST)
r 1.016364650 _2_ RTR  --- 0 AODV 48 [0 ffffffff d 800] ------- [13:255 -1:255 29 0] [0x2 2 1 [7 0] [0 4]] (REQUEST)
r 1.016364650 _9_ RTR  --- 0 AODV 48 [0 ffffffff d 800] ------- [13:255 -1:255 29 0] [0x2 2 1 [7 0] [0 4]] (REQUEST)
s 1.016559483 _11_ RTR  --- 0 AODV 48 [0 ffffffff 3 800] ------- [11:255 -1:255 27 0] [0x2 4 11 [6 0] [0 24]] (REQUEST)
s 1.016906633 _4_ RTR  --- 0 AODV 48 [0 ffffffff 2 800] ------- [4:255 -1:255 28 0] [0x2 3 1 [7 0] [0 4]] (REQUEST)
s 1.017053480 _15_ RTR  --- 0 AODV 48 [0 ffffffff 8 800] ------- [15:255 -1:255 28 0] [0x2 3 11 [6 0] [0 24]] (REQUEST)
r 1.017302572 _13_ RTR  --- 0 AODV 48 [0 ffffffff e 800] ------- [14:255 -1:255 28 0] [0x2 3 11 [6 0] [0 24]] (REQUEST)
r 1.017302710 _19_ RTR  --- 0 AODV 48 [0 ffffffff e 800] ------- [14:255 -1:255 28 0] [0x2 3 11 [6 0] [0 24]] (REQUEST)
r 1.017303122 _4_ RTR  --- 0 AODV 48 [0 ffffffff 9 800] ------- [9:255 -1:255 28 0] [0x2 3 11 [6 0] [0 24]] (REQUEST)
s 1.018079460 _18_ RTR  --- 0 AODV 48 [0 ffffffff c 800] ------- [18:255 -1:255 28 0] [0x2 3 11 [6 0] [0 24]] (REQUEST)
s 1.018130402 _1_ RTR  --- 0 AODV 48 [0 ffffffff 0 800] ------- [1:255 -1:255 29 0] [0x2 2 8 [12 0] [0 18]] (REQUEST)
s 1.018299056 _11_ RTR  --- 0 AODV 48 [0 ffffffff 3 800] ------- [11:255 -1:255 27 0] [0x2 4 1 [7 0] [0 4]] (REQUEST)
r 1.018585455 _1_ RTR  --- 0 AODV 48 [0 ffffffff 2 800] ------- [2:255 -1:255 29 0] [0x2 2 11 [6 0] [0 24]] (REQUEST)
r 1.018585455 _8_ RTR  --- 0 AODV 48 [0 ffffffff 2 800] ------- [2:255 -1:255 29 0] [0x2 2 11 [6 0] [0 24]] (REQUEST)
r 1.018585455 _3_ RTR  --- 0 AODV 48 [0 ffffffff 2 800] ------- [2:255 -1:255 29 0] [0x2 2 11 [6 0] [0 24]] (REQUEST)
r 1.018585593 _7_ RTR  --- 0 AODV 48 [0 ffffffff 2 800] ------- [2:255 -1:255 29 0] [0x2 2 11 [6 0] [0 24]] (REQUEST)
r 1.018585593 _9_ RTR  --- 0 AODV 48 [0 ffffffff 2 800] ------- [2:255 -1:255 29 0] [0x2 2 11 [6 0] [0 24]] (REQUEST)
r 1.018585788 _0_ RTR  --- 0 AODV 48 [0 ffffffff 2 800] ------- [2:255 -1:255 29 0] [0x2 2 11 [6 0] [0 24]] (REQUEST)
r 1.018585788 _14_ RTR  --- 0 AODV 48 [0 ffffffff 2 800] ------- [2:255 -1:255 29 0] [0x2 2 11 [6 0] [0 24]] (REQUEST)
r 1.018585788 _4_ RTR  --- 0 AODV 48 [0 ffffffff 2 800] ------- [2:255 -1:255 29 0] [0x2 2 11 [6 0] [0 24]] (REQUEST)
r 1.018585867 _13_ RTR  --- 0 AODV 48 [0 ffffffff 2 800] ------- [2:255 -1:255 29 0] [0x2 2 11 [6 0] [0 24]] (REQUEST)
r 1.018585867 _6_ RTR  --- 0 AODV 48 [0 ffffffff 2 800] ------- [2:255 -1:255 29 0] [0x2 2 11 [6 0] [0 24]] (REQUEST)
r 1.018585867 _15_ RTR  --- 0 AODV 48 [0 ffffffff 2 800] ------- [2:255 -1:255 29 0] [0x2 2 11 [6 0] [0 24]] (REQUEST)
r 1.018585867 _10_ RTR  --- 0 AODV 48 [0 ffffffff 2 800] ------- [2:255 -1:255 29 0] [0x2 2 11 [6 0] [0 24]] (REQUEST)
s 1.018732985 _6_ RTR  --- 0 AODV 48 [0 ffffffff 0 800] ------- [6:255 -1:255 29 0] [0x2 2 8 [12 0] [0 18]] (REQUEST)
s 1.019130888 _5_ RTR  --- 0 AODV 48 [0 ffffffff 3 800] ------- [5:255 -1:255 27 0] [0x2 4 11 [6 0] [0 24]] (REQUEST)
s 1.019282693 _16_ RTR  --- 0 AODV 48 [0 ffffffff e 800] ------- [16:255 -1:255 27 0] [0x2 4 1 [7 0] [0 4]] (REQUEST)
r 1.019503455 _1_ RTR  --- 0 AODV 48 [0 ffffffff 2 800] ------- [2:255 -1:255 29 0] [0x2 2 10 [19 0] [0 22]] (REQUEST)
r 1.019503455 _8_ RTR  --- 0 AODV 48 [0 ffffffff 2 800] ------- [2:255 -1:255 29 0] [0x2 2 10 [19 0] [0 22]] (REQUEST)
r 1.019503455 _3_ RTR  --- 0 AODV 48 [0 ffffffff 2 800] ------- [2:255 -1:255 29 0] [0x2 2 10 [19 0] [0 22]] (REQUEST)
r 1.019503593 _7_ RTR  --- 0 AODV 48 [0 ffffffff 2 800] ------- [2:255 -1:255 29 0] [0x2 2 10 [19 0] [0 22]] (REQUEST)
r 1.019503593 _9_ RTR  --- 0 AODV 48 [0 ffffffff 2 800] ------- [2:255 -1:255 29 0] [0x2 2 10 [19 0] [0 22]] (REQUEST)
r 1.019503788 _0_ RTR  --- 0 AODV 48 [0 ffffffff 2 800] ------- [2:255 -1:255 29 0] [0x2 2 10 [19 0] [0 22]] (REQUEST)
r 1.019503788 _14_ RTR  --- 0 AODV 48 [0 ffffffff 2 800] ------- [2:255 -1:255 29 0] [0x2 2 10 [19 0] [0 22]] (REQUEST)
r 1.019503788 _4_ RTR  --- 0 AODV 48 [0 ffffffff 2 800] ------- [2:255 -1:255 29 0] [0x2 2 10 [19 0] [0 22]] (REQUEST)
r 1.019503867 _13_ RTR  --- 0 AODV 48 [0 ffffffff 2 800] ------- [2:255 -1:255 29 0] [0x2 2 10 [19 0] [0 22]] (REQUEST)
r 1.019503867 _6_ RTR  --- 0 AODV 48 [0 ffffffff 2 800] ------- [2:255 -1:255 29 0] [0x2 2 10 [19 0] [0 22]] (REQUEST)
r 1.019503867 _15_ RTR  --- 0 AODV 48 [0 ffffffff 2 800] ------- [2:255 -1:255 29 0] [0x2 2 10 [19 0] [0 22]] (REQUEST)
r 1.019503867 _10_ RTR  --- 0 AODV 48 [0 ffffffff 2 800] ------- [2:255 -1:255 29 0] [0x2 2 10 [19 0] [0 22]] (REQUEST)
s 1.019663760 _4_ RTR  --- 0 AODV 48 [0 ffffffff 2 800] ------- [4:255 -1:255 28 0] [0x2 3 10 [19 0] [0 22]] (REQUEST)
s 1.020333263 _19_ RTR  --- 0 AODV 48 [0 ffffffff c 800] ------- [19:255 -1:255 28 0] [0x2 3 11 [6 0] [0 24]] (REQUEST)
r 1.020482122 _6_ RTR  --- 0 AODV 48 [0 ffffffff 0 800] ------- [0:255 -1:255 30 0] [0x2 1 7 [11 0] [0 16]] (REQUEST)
r 1.020482122 _1_ RTR  --- 0 AODV 48 [0 ffffffff 0 800] ------- [0:255 -1:255 30 0] [0x2 1 7 [11 0] [0 16]] (REQUEST)
r 1.020482200 _4_ RTR  --- 0 AODV 48 [0 ffffffff a 800] ------- [10:255 -1:255 28 0] [0x2 3 1 [7 0] [0 4]] (REQUEST)
r 1.020482200 _9_ RTR  --- 0 AODV 48 [0 ffffffff a 800] ------- [10:255 -1:255 28 0] [0x2 3 1 [7 0] [0 4]] (REQUEST)
r 1.020482200 _16_ RTR  --- 0 AODV 48 [0 ffffffff a 800] ------- [10:255 -1:255 28 0] [0x2 3 1 [7 0] [0 4]] (REQUEST)
r 1.020482200 _11_ RTR  --- 0 AODV 48 [0 ffffffff a 800] ------- [10:255 -1:255 28 0] [0x2 3 1 [7 0] [0 4]] (REQUEST)
r 1.020482260 _7_ RTR  --- 0 AODV 48 [0 ffffffff 0 800] ------- [0:255 -1:255 30 0] [0x2 1 7 [11 0] [0 16]] (REQUEST)
r 1.020482338 _15_ RTR  --- 0 AODV 48 [0 ffffffff a 800] ------- [10:255 -1:255 28 0] [0x2 3 1 [7 0] [0 4]] (REQUEST)
r 1.020482338 _3_ RTR  --- 0 AODV 48 [0 ffffffff a 800] ------- [10:255 -1:255 28 0] [0x2 3 1 [7 0] [0 4]] (REQUEST)
r 1.020482338 _5_ RTR  --- 0 AODV 48 [0 ffffffff a 800] ------- [10:255 -1:255 28 0] [0x2 3 1 [7 0] [0 4]] (REQUEST)
r 1.020482338 _17_ RTR  --- 0 AODV 48 [0 ffffffff a 800] ------- [10:255 -1:255 28 0] [0x2 3 1 [7 0] [0 4]] (REQUEST)
r 1.020482455 _12_ RTR  --- 0 AODV 48 [0 ffffffff 0 800] ------- [0:255 -1:255 30 0] [0x2 1 7 [11 0] [0 16]] (REQUEST)
s 1.020651257 _10_ RTR  --- 0 AODV 48 [0 ffffffff 3 800] ------- [10:255 -1:255 27 0] [0x2 4 11 [6 0] [0 24]] (REQUEST)
s 1.021579744 _9_ RTR  --- 0 AODV 48 [0 ffffffff 2 800] ------- [9:255 -1:255 28 0] [0x2 3 10 [19 0] [0 22]] (REQUEST)
r 1.021765496 _4_ RTR  --- 0 AODV 48 [0 ffffffff a 800] ------- [10:255 -1:255 27 0] [0x2 4 11 [6 0] [0 24]] (REQUEST)
r 1.021765496 _9_ RTR  --- 0 AODV 48 [0 ffffffff a 800] ------- [10:255 -1:255 27 0] [0x2 4 11 [6 0] [0 24]] (REQUEST)
r 1.021765496 _16_ RTR  --- 0 AODV 48 [0 ffffffff a 800] ------- [10:255 -1:255 27 0] [0x2 4 11 [6 0] [0 24]] (REQUEST)
r 1.021765496 _11_ RTR  --- 0 AODV 48 [0 ffffffff a 800] ------- [10:255 -1:255 27 0] [0x2 4 11 [6 0] [0 24]] (REQUEST)
r 1.021765634 _15_ RTR  --- 0 AODV 48 [0 ffffffff a 800] ------- [10:255 -1:255 27 0] [0x2 4 11 [6 0] [0 24]] (REQUEST)
r 1.021765634 _3_ RTR  --- 0 AODV 48 [0 ffffffff a 800] ------- [10:255 -1:255 27 0] [0x2 4 11 [6 0] [0 24]] (REQUEST)
r 1.021765634 _5_ RTR  --- 0 AODV 48 [0 ffffffff a 800] ------- [10:255 -1:255 27 0] [0x2 4 11 [6 0] [0 24]] (REQUEST)
r 1.021765634 _17_ RTR  --- 0 AODV 48 [0 ffffffff a 800] ------- [10:255 -1:255 27 0] [0x2 4 11 [6 0] [0 24]] (REQUEST)
r 1.021765829 _8_ RTR  --- 0 AODV 48 [0 ffffffff a 800] ------- [10:255 -1:255 27 0] [0x2 4 11 [6 0] [0 24]] (REQUEST)
r 1.021765908 _14_ RTR  --- 0 AODV 48 [0 ffffffff a 800] ------- [10:255 -1:255 27 0] [0x2 4 11 [6 0] [0 24]] (REQUEST)
r 1.021765908 _2_ RTR  --- 0 AODV 48 [0 ffffffff a 800] ------- [10:255 -1:255 27 0] [0x2 4 11 [6 0] [0 24]] (REQUEST)
s 1.022623642 _1_ RTR  --- 0 AODV 48 [0 ffffffff 0 800] ------- [1:255 -1:255 29 0] [0x2 2 7 [11 0] [0 16]] (REQUEST)
r 1.022703829 _3_ RTR  --- 0 AODV 48 [0 ffffffff 9 800] ------- [9:255 -1:255 28 0] [0x2 3 1 [7 0] [0 4]] (REQUEST)
r 1.022703829 _8_ RTR  --- 0 AODV 48 [0 ffffffff 9 800] ------- [9:255 -1:255 28 0] [0x2 3 1 [7 0] [0 4]] (REQUEST)
r 1.022703829 _15_ RTR  --- 0 AODV 48 [0 ffffffff 9 800] ------- [9:255 -1:255 28 0] [0x2 3 1 [7 0] [0 4]] (REQUEST)
r 1.022703829 _10_ RTR  --- 0 AODV 48 [0 ffffffff 9 800] ------- [9:255 -1:255 28 0] [0x2 3 1 [7 0] [0 4]] (REQUEST)
r 1.022703967 _14_ RTR  --- 0 AODV 48 [0 ffffffff 9 800] ------- [9:255 -1:255 28 0] [0x2 3 1 [7 0] [0 4]] (REQUEST)
r 1.022703967 _2_ RTR  --- 0 AODV 48 [0 ffffffff 9 800] ------- [9:255 -1:255 28 0] [0x2 3 1 [7 0] [0 4]] (REQUEST)
r 1.022703967 _4_ RTR  --- 0 AODV 48 [0 ffffffff 9 800] ------- [9:255 -1:255 28 0] [0x2 3 1 [7 0] [0 4]] (REQUEST)